                         Program Version 5.0.4 -  RELEASE  -
|  1> ! b3lyp cc-pvtz TightSCF NoFrozenCore KeepDens
|  2> %MaxCore 1024
|  3> %pal
|  4> nprocs 8
|  5> end
|  6> %elprop
|  7> Polar 1
|  8> dipole true
|  9> quadrupole true
| 10> end
| 11>
| 12> * xyzfile 0 1 tip3p.xyz
| 13>
| 14>
| 15>                          ****END OF INPUT****

CARTESIAN COORDINATES (ANGSTROEM)
---------------------------------
  O      0.000000   -0.065560    0.000000
  H      0.756950    0.520320    0.000000
  H     -0.756950    0.520320    0.000000

 Total Charge           Charge          ....    0
 Multiplicity           Mult            ....    1
 Number of Electrons    NEL             ....   10
 Basis Dimension        Dim             ....   58

ORBITAL ENERGIES
----------------

  NO   OCC          E(Eh)            E(eV)
   0   2.0000     -19.116855      -520.1961
   1   2.0000      -1.006643       -27.3921
   2   2.0000      -0.525801       -14.3078
   3   2.0000      -0.382365       -10.4047
   4   2.0000      -0.306379        -8.3370
   5   0.0000       0.027720         0.7543
   6   0.0000       0.099748         2.7143
   7   0.0000       0.371351        10.1050
   8   0.0000       0.419923        11.4267
   9   0.0000       0.494716        13.4619

MULLIKEN ATOMIC CHARGES
-----------------------
   0 O :   -0.435951
   1 H :    0.217976
   2 H :    0.217975
Sum of atomic charges:   -0.0000000

LOEWDIN ATOMIC CHARGES
----------------------
   0 O :    0.381091
   1 H :   -0.190545
   2 H :   -0.190546

  Mayer bond orders larger than 0.100000
B(  0-O ,  1-H ) :   1.0221 B(  0-O ,  2-H ) :   1.0221

FINAL SINGLE POINT ENERGY       -76.422874471005

DIPOLE MOMENT
-------------
                                X             Y             Z
Electronic contribution:      0.00000      -0.22103      -0.00000
Nuclear contribution   :      0.00000       0.97533       0.00000
                        -----------------------------------------
Total Dipole Moment    :      0.00000       0.75430      -0.00000
                        -----------------------------------------
Magnitude (a.u.)       :      0.75430
Magnitude (Debye)      :      1.91727

Rotational constants in cm-1:    27.430294    14.593921     9.525830
Rotational constants in MHz : 822339.513123 437514.740433 285577.206742

                             ****ORCA TERMINATED NORMALLY****
TOTAL RUN TIME: 0 days 0 hours 0 minutes 2 seconds 303 msec
